data_1
_chemical_formula_structural 'Er Al'
_chemical_formula_sum 'Al1 Er1'
_chemical_name_structure_type DyAl
_exptl_crystal_density_diffrn 7.08


_cell_length_a 5.801
_cell_length_b 11.272
_cell_length_c 5.57
_cell_angle_alpha 90.
_cell_angle_beta 90.
_cell_angle_gamma 90.
_cell_volume 364.22
_cell_formula_units_Z 8
_space_group_name_H-M_alt 'P b c m'
_space_group_IT_number 57
loop_
_space_group_symop_id
_space_group_symop_operation_xyz
1 'x, -y+1/2, z+1/2'
2 '-x, y+1/2, z'
3 'x, y, -z+1/2'
4 '-x, -y, -z'
5 '-x, y+1/2, -z+1/2'
6 'x, -y+1/2, -z'
7 '-x, -y, z+1/2'
8 'x, y, z'
loop_
_atom_type_symbol
_atom_type_oxidation_number
Al0+ 0
Er0+ 0
loop_
_atom_site_label
_atom_site_type_symbol
_atom_site_symmetry_multiplicity
_atom_site_Wyckoff_symbol
_atom_site_fract_x
_atom_site_fract_y
_atom_site_fract_z
_atom_site_B_iso_or_equiv
_atom_site_occupancy
Al1 Al0+ 4 c 0.931 0.25 0 . 1.
Al2 Al0+ 4 d 0.688 0.102 0.25 . 1.
Er1 Er0+ 4 d 0.16 0.015 0.25 . 1.
Er2 Er0+ 4 d 0.402 0.333 0.25 . 1.